 Gaussian 09, Revision E.01,
 Gaussian 09:  EM64L-G09RevE.01 30-Nov-2015

 ----------------------------------------
 #N B3LYP/6-31G(d) FREQ Geom=Connectivity
 ----------------------------------------

 -----
 C2H4O
 -----
 Symbolic Z-matrix:
 Charge =  0 Multiplicity = 1

                         Standard orientation:
 ---------------------------------------------------------------------
 Center     Atomic      Atomic             Coordinates (Angstroms)
 Number     Number       Type             X           Y           Z
 ---------------------------------------------------------------------
      1          6           0        1.107616   -0.180411   -0.049740
      2          6           0       -0.107220    0.531805    0.047449
      3          1           0       -0.296990    1.606948    0.122226
      4          8           0       -1.110943   -0.267895   -0.019306
      5          1           0       -0.121172   -1.032016   -0.341016
      6          1           0        2.016606    0.284094   -0.429475
      7          1           0        1.286723   -0.824235    0.816458
 ---------------------------------------------------------------------

 SCF Done:  E(RB3LYP) =  -153.714172988     A.U. after   14 cycles

 The electronic state is 1-A.
 Alpha  occ. eigenvalues --  -19.17894 -10.29193 -10.17158  -1.06987  -0.73782
 Alpha  occ. eigenvalues --   -0.60668  -0.50835  -0.45375  -0.42962  -0.38358
 Alpha  occ. eigenvalues --   -0.33148  -0.22741
 Alpha virt. eigenvalues --   -0.04941   0.07870   0.11902   0.14447   0.18325
 Alpha virt. eigenvalues --    0.23969   0.32083   0.51568   0.53035   0.58025
 Alpha virt. eigenvalues --    0.58926   0.63302   0.69504   0.75683   0.82618

 Mulliken charges:
               1
     1  C   -0.617956
     2  C    0.258405
     3  H    0.164318
     4  O   -0.474566
     5  H    0.319645
     6  H    0.149859
     7  H    0.200296
 Sum of Mulliken charges =  -0.00000

 Dipole moment (field-independent basis, Debye):
    X=              1.0366    Y=              1.0341    Z=              0.4269  Tot=              1.5252
 Quadrupole moment (field-independent basis, Debye-Ang):
   XX=            -21.0796   YY=            -16.5979   ZZ=            -18.9540
   XY=             -0.5131   XZ=              0.4714   YZ=             -0.7063

  Exact polarizability:  34.574  -0.926  27.766  -0.634   0.066  15.176
 Approx polarizability:  61.413   0.450  41.479  -1.752   0.885  20.754

 ******    1 imaginary frequencies (negative Signs) ******

                      1                      2                      3
                      A                      A                      A
 Frequencies --  -2199.6288               596.2961               653.2237
 Red. masses --      1.1012                 1.2457                 1.7938
 Frc consts  --      3.1392                 0.2610                 0.4510
 IR Inten    --    377.3724                49.1538               124.2848

                      4                      5                      6
                      A                      A                      A
 Frequencies --    798.2860               970.1890              1067.8521
 Red. masses --      1.3576                 1.5401                 1.6852
 Frc consts  --      0.5097                 0.8541                 1.1322
 IR Inten    --     31.6808                 7.3789                 0.6315

                      7                      8                      9
                      A                      A                      A
 Frequencies --   1166.7526              1212.3772              1305.2621
 Red. masses --      1.2853                 1.3043                 1.8417
 Frc consts  --      1.0309                 1.1295                 1.8487
 IR Inten    --     94.8771                23.7160                43.3544

                     10                     11                     12
                      A                      A                      A
 Frequencies --   1498.1926              1572.0740              1852.5048
 Red. masses --      1.2872                 3.5686                 1.1128
 Frc consts  --      1.7023                 5.1963                 2.2501
 IR Inten    --      4.2712               226.7338                11.4362

                     13                     14                     15
                      A                      A                      A
 Frequencies --   3108.1446              3142.9760              3194.7150
 Red. masses --      1.0600                 1.0945                 1.1057
 Frc consts  --      6.0336                 6.3701                 6.6487
 IR Inten    --      0.9662                30.4960                 8.8824

 - Thermochemistry -
 -------------------
 Temperature   298.150 Kelvin.  Pressure   1.00000 Atm.
 Atom     1 has atomic number  6 and mass  12.00000

 Molecular mass:    44.02621 amu.
 Principal axes and moments of inertia in atomic units:
                           1         2         3
     Eigenvalues --    37.14973 147.67325 177.36979
           X            0.99963  -0.02661   0.00570
           Y            0.02677   0.99919  -0.02991
           Z           -0.00490   0.03005   0.99954
 This molecule is an asymmetric top.
 Rotational symmetry number  1.
 Rotational temperatures (Kelvin)      2.33148     0.58652     0.48832
 Rotational constants (GHZ):          48.58020    12.22118    10.17502
    1 imaginary frequencies ignored.
 Zero-point vibrational energy     132419.7 (Joules/Mol)
                                   31.64907 (Kcal/Mol)
 Warning -- explicit consideration of   1 degrees of freedom as
           vibrations may cause significant error
 Vibrational temperatures:    857.94   939.84  1148.55  1395.88  1536.40
          (Kelvin)           1678.69  1744.34  1877.98  2155.56  2261.86
                             2665.34  4471.92  4522.04  4596.48

 Zero-point correction=                           0.050436 (Hartree/Particle)
 Thermal correction to Energy=                    0.053768
 Thermal correction to Enthalpy=                  0.054712
 Thermal correction to Gibbs Free Energy=         0.026147
 Sum of electronic and zero-point Energies=           -153.663737
 Sum of electronic and thermal Energies=              -153.660405
 Sum of electronic and thermal Enthalpies=            -153.659461
 Sum of electronic and thermal Free Energies=         -153.688026

                     E (Thermal)             CV                S
                      KCal/Mol        Cal/Mol-Kelvin    Cal/Mol-Kelvin
 Total                   33.740             10.021             60.120
 Electronic               0.000              0.000              0.000
 Translational            0.889              2.981             37.273
 Rotational               0.889              2.981             21.503
 Vibrational             31.962              4.059              1.345
 Vibration     1          0.954              1.040              0.456

 Optimization completed.
    -- Stationary point found.

 1\1\GINC-BUCHNER\Freq\RB3LYP\6-31G(d)\C2H4O1\WEBMODEMO\01-May-2019\1\\
 #N B3LYP/6-31G(d) FREQ Geom=Connectivity\\C2H4O\\0,1\C\C,1,B1\H,2,B2,1
 ,A1\O,2,B3,1,A2,3,D1,0\H,4,B4,2,A3,1,D2,0\H,1,B5,2,A4,3,D3,0\H,1,B6,2,
 A5,3,D4,0\\B1=1.41156787\B2=1.09432021\B3=1.28508217\B4=1.29113317\B5=
 1.0891402\B6=1.0940236\A1=130.5162878\A2=110.771441\A3=77.43656074\A4=
 121.809322\A5=112.5389121\D1=177.0874267\D2=-10.13572007\D3=-23.403058
 21\D4=115.6047561\\Version=EM64L-G09RevE.01\State=1-A\HF=-153.714173\R
 MSD=5.958e-09\RMSF=1.177e-05\ZeroPoint=0.050436\Thermal=0.0537678\Dipo

 Normal termination of Gaussian 09 at Wed May  1 00:22:18 2019.
