 Gaussian 09, Revision E.01,
 Gaussian 09:  EM64L-G09RevE.01 30-Nov-2015

 --------------------------------------------
 #N B3LYP/6-31G(d) OPT FREQ Geom=Connectivity
 --------------------------------------------

 -----
 C2H4O
 -----
 Symbolic Z-matrix:
 Charge =  0 Multiplicity = 1

 SCF Done:  E(RB3LYP) =  -153.796967238     A.U. after   13 cycles
 SCF Done:  E(RB3LYP) =  -153.805241458     A.U. after   12 cycles
 SCF Done:  E(RB3LYP) =  -153.805675350     A.U. after   11 cycles
 SCF Done:  E(RB3LYP) =  -153.805677555     A.U. after    8 cycles
 Optimization completed.
    -- Stationary point found.

 1\1\GINC-BUCHNER\FOpt\RB3LYP\6-31G(d)\C2H4O1\WEBMODEMO\01-May-2019\0\\
 #N B3LYP/6-31G(d) OPT FREQ Geom=Connectivity\\C2H4O\\0,1\C,0.005644969
 2,0.,0.0433422715\C,0.0010428014,0.,1.3774266676\H,0.9353626929,0.,1.9
 260461152\H,-0.9196242851,0.,1.9570779858\H,0.9217005038,0.,-0.5408350
 604\O,-1.0768995246,0.,-0.7847086353\H,-1.8829788681,0.,-0.242302962\\
 Version=EM64L-G09RevE.01\State=1-A'\HF=-153.8056776\RMSD=2.802e-09\RMS
 F=6.323e-05\Dipole=-0.2252987,0.,0.3232166\Quadrupole=2.9738833,-1.621
 7123,-1.352171,0.,-0.8922832,0.\PG=CS [SG(C2H4O1)]\\@

 Normal termination of Gaussian 09 at Wed May  1 08:42:25 2019.

 --------------------------------------------------------------------
 #N Geom=AllCheck Guess=TCheck SCRF=Check GenChk RB3LYP/6-31G(d) Freq
 --------------------------------------------------------------------

 Structure from the checkpoint file:  "/scratch/webmodemo/webmo-4350/515773/Gau-21070.chk"
 -----
 C2H4O
 -----
 Charge =  0 Multiplicity = 1

                         Standard orientation:
 ---------------------------------------------------------------------
 Center     Atomic      Atomic             Coordinates (Angstroms)
 Number     Number       Type             X           Y           Z
 ---------------------------------------------------------------------
      1          6           0        0.000000    0.440541    0.000000
      2          6           0        1.216518   -0.107078   -0.000000
      3          1           0        2.098140    0.522747   -0.000000
      4          1           0        1.370884   -1.184016   -0.000000
      5          1           0       -0.160378    1.515110    0.000000
      6          8           0       -1.197198   -0.210834    0.000000
      7          1           0       -1.030172   -1.167949    0.000000
 ---------------------------------------------------------------------

 SCF Done:  E(RB3LYP) =  -153.805677555     A.U. after    1 cycles

 The electronic state is 1-A'.
 Alpha  occ. eigenvalues --  -19.17868 -10.24230 -10.16956  -1.05552  -0.74485
 Alpha  occ. eigenvalues --   -0.61720  -0.49239  -0.47656  -0.38407  -0.38315
 Alpha  occ. eigenvalues --   -0.36513  -0.22845
 Alpha virt. eigenvalues --    0.04170   0.07182   0.12770   0.14349   0.18627
 Alpha virt. eigenvalues --    0.28516   0.36362   0.50434   0.54561   0.61247
 Alpha virt. eigenvalues --    0.62426   0.63736   0.67527   0.78749   0.85968

 Mulliken charges:
               1
     1  C    0.152222
     2  C   -0.400412
     3  H    0.145576
     4  H    0.125758
     5  H    0.151409
     6  O   -0.578167
     7  H    0.403613
 Sum of Mulliken charges =  -0.00000

 Dipole moment (field-independent basis, Debye):
    X=              0.5170    Y=             -0.8576    Z=             -0.0000  Tot=              1.0014
 Quadrupole moment (field-independent basis, Debye-Ang):
   XX=            -19.8123   YY=            -14.1386   ZZ=            -20.2473
   XY=              1.3627   XZ=              0.0000   YZ=              0.0000

  Exact polarizability:  34.521  -1.711  25.967   0.000  -0.000  10.614
 Approx polarizability:  54.415  -5.619  34.624  -0.000   0.000  14.059

                      1                      2                      3
                     A"                     A'                     A"
 Frequencies --    482.1451               491.6528               714.2017
 Red. masses --      1.1191                 2.0664                 1.5279
 Frc consts  --      0.1533                 0.2943                 0.4592
 IR Inten    --    122.6444                13.2012                 0.0224

                      4                      5                      6
                     A"                     A'                     A"
 Frequencies --    813.8060               969.1722              1001.3599
 Red. masses --      1.3751                 1.6895                 1.1364
 Frc consts  --      0.5366                 0.9350                 0.6714
 IR Inten    --     63.1954                 8.7931                26.2995

                      7                      8                      9
                     A'                     A'                     A'
 Frequencies --   1137.1066              1341.0356              1375.1827
 Red. masses --      2.1196                 1.4078                 1.3220
 Frc consts  --      1.6148                 1.4917                 1.4730
 IR Inten    --    182.3735                 6.4449                 1.6235

                     10                     11                     12
                     A'                     A'                     A'
 Frequencies --   1471.5865              1730.9968              3168.1980
 Red. masses --      1.1674                 4.3446                 1.0635
 Frc consts  --      1.4896                 7.6699                 6.2894
 IR Inten    --     17.2625               152.8295                 7.3739

                     13                     14                     15
                     A'                     A'                     A'
 Frequencies --   3214.1878              3264.5675              3726.5840
 Red. masses --      1.0940                 1.1124                 1.0653
 Frc consts  --      6.6588                 6.9851                 8.7168
 IR Inten    --      8.1215                11.9474                19.4250

 - Thermochemistry -
 -------------------
 Temperature   298.150 Kelvin.  Pressure   1.00000 Atm.
 Atom     1 has atomic number  6 and mass  12.00000

 Molecular mass:    44.02621 amu.
 Principal axes and moments of inertia in atomic units:
                           1         2         3
     Eigenvalues --    29.76752 172.16459 201.93211
           X            0.99729  -0.07361   0.00000
           Y            0.07361   0.99729   0.00000
           Z            0.00000  -0.00000   1.00000
 This molecule is an asymmetric top.
 Rotational symmetry number  1.
 Rotational temperatures (Kelvin)      2.90967     0.50309     0.42893
 Rotational constants (GHZ):          60.62786    10.48265     8.93737
 Zero-point vibrational energy     148945.7 (Joules/Mol)
                                   35.59889 (Kcal/Mol)
 Warning -- explicit consideration of   2 degrees of freedom as
           vibrations may cause significant error
 Vibrational temperatures:    693.70   707.38  1027.58  1170.88  1394.42
          (Kelvin)           1440.73  1636.04  1929.45  1978.58  2117.28
                             2490.52  4558.32  4624.49  4696.98  5361.72

 Zero-point correction=                           0.056730 (Hartree/Particle)
 Thermal correction to Energy=                    0.060337
 Thermal correction to Enthalpy=                  0.061282
 Thermal correction to Gibbs Free Energy=         0.032289
 Sum of electronic and zero-point Energies=           -153.748947
 Sum of electronic and thermal Energies=              -153.745340
 Sum of electronic and thermal Enthalpies=            -153.744396
 Sum of electronic and thermal Free Energies=         -153.773388

                     E (Thermal)             CV                S
                      KCal/Mol        Cal/Mol-Kelvin    Cal/Mol-Kelvin
 Total                   37.862             11.348             61.020
 Electronic               0.000              0.000              0.000
 Translational            0.889              2.981             37.273
 Rotational               0.889              2.981             21.564
 Vibrational             36.085              5.386              2.183
 Vibration     1          0.838              1.290              0.704
 Vibration     2          0.847              1.269              0.679

 Optimization completed.
    -- Stationary point found.

 1\1\GINC-BUCHNER\Freq\RB3LYP\6-31G(d)\C2H4O1\WEBMODEMO\01-May-2019\0\\
 #N Geom=AllCheck Guess=TCheck SCRF=Check GenChk RB3LYP/6-31G(d) Freq\\
 C2H4O\\0,1\C,0.0022645681,0.,0.0372132633\C,-0.0023375997,0.,1.3712976
 594\H,0.9319822918,0.,1.919917107\H,-0.9230046862,0.,1.9509489776\H,0.
 9183201027,0.,-0.5469640686\O,-1.0802799258,0.,-0.7908376435\H,-1.8863
 592693,0.,-0.2484319702\\Version=EM64L-G09RevE.01\State=1-A'\HF=-153.8
 056776\RMSD=5.795e-10\RMSF=6.323e-05\ZeroPoint=0.0567304\Thermal=0.060
 3374\Dipole=-0.2252988,0.,0.3232166\DipoleDeriv=0.7244452,0.,0.5987232

 Normal termination of Gaussian 09 at Wed May  1 08:42:39 2019.
